
     Program PWSCF v.7.3.1 starts on 27Mar2025 at 21:30:48 

     This program is part of the open-source Quantum ESPRESSO suite
     for quantum simulation of materials; please cite
         "P. Giannozzi et al., J. Phys.:Condens. Matter 21 395502 (2009);
         "P. Giannozzi et al., J. Phys.:Condens. Matter 29 465901 (2017);
         "P. Giannozzi et al., J. Chem. Phys. 152 154105 (2020);
          URL http://www.quantum-espresso.org", 
     in publications or presentations arising from this work. More details at
     http://www.quantum-espresso.org/quote

     Parallel version (MPI), running on     1 processors

     MPI processes distributed on     1 nodes
     8476 MiB available memory on the printing compute node when the environment starts
 
     Waiting for input...
     Reading input from standard input

     Current dimensions of program PWSCF are:
     Max number of different atomic species (ntypx) = 10
     Max number of k-points (npk) =  40000
     Max angular momentum in pseudopotentials (lmaxx) =  4
 
     Subspace diagonalization in iterative solution of the eigenvalue problem:
     a serial algorithm will be used

 
     G-vector sticks info
     --------------------
     sticks:   dense  smooth     PW     G-vecs:    dense   smooth      PW
     Sum         577     577    185                10443    10443    1863
 
     Using Slab Decomposition
 


     bravais-lattice index     =            1
     lattice parameter (alat)  =       6.7403  a.u.
     unit-cell volume          =     306.2169 (a.u.)^3
     number of atoms/cell      =            8
     number of atomic types    =            2
     number of electrons       =        32.00
     number of Kohn-Sham states=           16
     kinetic-energy cutoff     =      40.0000  Ry
     charge density cutoff     =     160.0000  Ry
     scf convergence threshold =      1.0E-06
     mixing beta               =       0.3000
     number of iterations used =            8  plain     mixing
     Exchange-correlation=  SLA  PW   PBX  PBC
                           (   1   4   3   4   0   0   0)

     celldm(1)=   6.740256  celldm(2)=   0.000000  celldm(3)=   0.000000
     celldm(4)=   0.000000  celldm(5)=   0.000000  celldm(6)=   0.000000

     crystal axes: (cart. coord. in units of alat)
               a(1) = (   1.000000   0.000000   0.000000 )  
               a(2) = (   0.000000   1.000000   0.000000 )  
               a(3) = (   0.000000   0.000000   1.000000 )  

     reciprocal axes: (cart. coord. in units 2 pi/alat)
               b(1) = (  1.000000  0.000000  0.000000 )  
               b(2) = (  0.000000  1.000000  0.000000 )  
               b(3) = (  0.000000  0.000000  1.000000 )  


     PseudoPot. # 1 for C  read from file:
     /u/home/n/nbriana/qe-7.3.1/XSpectra/test/pseudo/Ch_PBE_TM_2pj.UPF
     MD5 check sum: ef0cb3dee31bd9e4ba2a832a2c716264
     Pseudo is Norm-conserving, Zval =  5.0
     Generated by new atomic code, or converted to UPF format
     Using radial grid of 1073 points,  1 beta functions with: 
                l(1) =   0

     PseudoPot. # 2 for C  read from file:
     /u/home/n/nbriana/qe-7.3.1/XSpectra/test/pseudo/C_PBE_TM_2pj.UPF
     MD5 check sum: e8858615eb0a4b79f05373b4879fdf67
     Pseudo is Norm-conserving, Zval =  4.0
     Generated by new atomic code, or converted to UPF format
     Using radial grid of 1073 points,  1 beta functions with: 
                l(1) =   0

     atomic species   valence    mass     pseudopotential
     C_h               5.00    12.00000     C ( 1.00)
     C                 4.00    12.00000     C ( 1.00)

     24 Sym. Ops. (no inversion) found (18 have fractional translation)



   Cartesian axes

     site n.     atom                  positions (alat units)
         1        C      tau(   1) = (   0.0000000   0.0000000   0.0000000  )
         2        C      tau(   2) = (   0.0000000   0.5000000   0.5000000  )
         3        C      tau(   3) = (   0.5000000   0.0000000   0.5000000  )
         4        C      tau(   4) = (   0.5000000   0.5000000   0.0000000  )
         5        C      tau(   5) = (   0.7500000   0.7500000   0.2500000  )
         6        C      tau(   6) = (   0.7500000   0.2500000   0.7500000  )
         7        C      tau(   7) = (   0.2500000   0.7500000   0.7500000  )
         8        C_h    tau(   8) = (   0.2500000   0.2500000   0.2500000  )

     number of k points=    10
                       cart. coord. in units 2pi/alat
        k(    1) = (   0.0000000   0.0000000   0.0000000), wk =   0.0312500
        k(    2) = (   0.0000000   0.0000000   0.2500000), wk =   0.1875000
        k(    3) = (   0.0000000   0.0000000  -0.5000000), wk =   0.0937500
        k(    4) = (   0.0000000   0.2500000   0.2500000), wk =   0.3750000
        k(    5) = (   0.0000000   0.2500000  -0.5000000), wk =   0.3750000
        k(    6) = (   0.0000000  -0.5000000  -0.5000000), wk =   0.0937500
        k(    7) = (   0.2500000   0.2500000   0.2500000), wk =   0.2500000
        k(    8) = (   0.2500000   0.2500000  -0.5000000), wk =   0.3750000
        k(    9) = (   0.2500000  -0.5000000  -0.5000000), wk =   0.1875000
        k(   10) = (  -0.5000000  -0.5000000  -0.5000000), wk =   0.0312500

     Dense  grid:    10443 G-vectors     FFT dimensions: (  30,  30,  30)

     Estimated max dynamical RAM per process >      12.86 MB

     Initial potential from superposition of free atoms

     starting charge      28.0000, renormalised to      32.0000
     Starting wfcs are   64 randomized atomic wfcs

     total cpu time spent up to now is        0.8 secs

     Self-consistent Calculation

     iteration #  1     ecut=    40.00 Ry     beta= 0.30
     Davidson diagonalization with overlap
     ethr =  1.00E-02,  avg # of iterations =  2.0

     total cpu time spent up to now is        1.2 secs

     total energy              =     -99.93834208 Ry
     estimated scf accuracy    <       0.75019914 Ry

     iteration #  2     ecut=    40.00 Ry     beta= 0.30
     Davidson diagonalization with overlap
     ethr =  2.34E-03,  avg # of iterations =  2.0

     total cpu time spent up to now is        1.5 secs

     total energy              =    -100.02301087 Ry
     estimated scf accuracy    <       0.09155726 Ry

     iteration #  3     ecut=    40.00 Ry     beta= 0.30
     Davidson diagonalization with overlap
     ethr =  2.86E-04,  avg # of iterations =  3.6

     total cpu time spent up to now is        1.9 secs

     total energy              =    -100.04054255 Ry
     estimated scf accuracy    <       0.03848618 Ry

     iteration #  4     ecut=    40.00 Ry     beta= 0.30
     Davidson diagonalization with overlap
     ethr =  1.20E-04,  avg # of iterations =  4.1

     total cpu time spent up to now is        2.4 secs

     total energy              =    -100.02536968 Ry
     estimated scf accuracy    <       0.14151626 Ry

     iteration #  5     ecut=    40.00 Ry     beta= 0.30
     Davidson diagonalization with overlap
     ethr =  1.20E-04,  avg # of iterations =  3.3

     total cpu time spent up to now is        2.9 secs

     total energy              =    -100.04720654 Ry
     estimated scf accuracy    <       0.00194564 Ry

     iteration #  6     ecut=    40.00 Ry     beta= 0.30
     Davidson diagonalization with overlap
     ethr =  6.08E-06,  avg # of iterations =  4.0

     total cpu time spent up to now is        3.3 secs

     total energy              =    -100.04853793 Ry
     estimated scf accuracy    <       0.00093894 Ry

     iteration #  7     ecut=    40.00 Ry     beta= 0.30
     Davidson diagonalization with overlap
     ethr =  2.93E-06,  avg # of iterations =  2.0

     total cpu time spent up to now is        3.7 secs

     total energy              =    -100.04861738 Ry
     estimated scf accuracy    <       0.00007400 Ry

     iteration #  8     ecut=    40.00 Ry     beta= 0.30
     Davidson diagonalization with overlap
     ethr =  2.31E-07,  avg # of iterations =  4.3

     total cpu time spent up to now is        4.1 secs

     total energy              =    -100.04864946 Ry
     estimated scf accuracy    <       0.00001989 Ry

     iteration #  9     ecut=    40.00 Ry     beta= 0.30
     Davidson diagonalization with overlap
     ethr =  6.22E-08,  avg # of iterations =  3.2

     total cpu time spent up to now is        4.5 secs

     total energy              =    -100.04865769 Ry
     estimated scf accuracy    <       0.00000441 Ry

     iteration # 10     ecut=    40.00 Ry     beta= 0.30
     Davidson diagonalization with overlap
     ethr =  1.38E-08,  avg # of iterations =  1.1

     total cpu time spent up to now is        4.8 secs

     total energy              =    -100.04865581 Ry
     estimated scf accuracy    <       0.00000378 Ry

     iteration # 11     ecut=    40.00 Ry     beta= 0.30
     Davidson diagonalization with overlap
     ethr =  1.18E-08,  avg # of iterations =  2.4

     total cpu time spent up to now is        5.2 secs

     End of self-consistent calculation

          k = 0.0000 0.0000 0.0000 (  1357 PWs)   bands (ev):

    -8.4837  -1.3563   0.2832   0.2832   0.2832   0.9214   0.9214   5.9452
     5.9452   5.9452   7.2761   7.2761   7.2761  12.7945  12.7945  12.7945

          k = 0.0000 0.0000 0.2500 (  1298 PWs)   bands (ev):

    -7.9441  -3.4881  -0.2414   0.6082   0.6082   1.2688   4.1010   5.4120
     5.4592   5.4592   6.2907   7.3881   7.3881  11.2390  11.2390  11.5375

          k = 0.0000 0.0000-0.5000 (  1278 PWs)   bands (ev):

    -6.7828  -5.6075   0.0648   1.0169   1.0169   1.7268   4.1118   4.6678
     4.6678   5.2882   8.2611   8.3441   8.3441   8.6868   9.4681   9.4681

          k = 0.0000 0.2500 0.2500 (  1298 PWs)   bands (ev):

    -7.4154  -3.3709  -2.4788   0.0671   1.2213   3.1907   3.9492   4.2126
     5.8073   6.1458   6.4399   7.5822   7.7772   9.1055   9.8665  12.1179

          k = 0.0000 0.2500-0.5000 (  1304 PWs)   bands (ev):

    -6.3109  -5.0556  -1.9280  -0.9707   2.3489   2.5009   3.7374   4.5705
     6.1573   6.4944   6.8621   7.4095   7.9776   8.0403  10.1618  10.1880

          k = 0.0000-0.5000-0.5000 (  1308 PWs)   bands (ev):

    -5.4709  -3.5574  -3.5574  -3.3077   3.3490   3.9442   4.2288   4.2288
     5.5512   5.7064   5.7064   5.9385   9.2575   9.2575  10.5140  10.5631

          k = 0.2500 0.2500 0.2500 (  1304 PWs)   bands (ev):

    -6.9002  -3.2405  -2.0090  -2.0090   2.0577   2.3343   2.3343   4.9442
     6.6345   6.6345   6.7481   7.7070   7.7070   8.6919  11.2548  11.2548

          k = 0.2500 0.2500-0.5000 (  1324 PWs)   bands (ev):

    -5.8653  -4.5136  -2.1052  -1.1873   0.7611   0.7945   3.5094   4.2309
     5.9886   7.2949   7.6549   7.7679   9.3378   9.8610  10.0231  10.0390

          k = 0.2500-0.5000-0.5000 (  1312 PWs)   bands (ev):

    -5.1232  -3.0655  -3.0655  -2.8545   0.8647   1.6488   1.6488   2.0981
     7.1780   8.0315   8.0315   9.0418   9.7078   9.7078  10.6215  10.6621

          k =-0.5000-0.5000-0.5000 (  1328 PWs)   bands (ev):

    -4.6500  -2.1718  -2.1718  -2.1718  -0.2013  -0.2013  -0.2013   0.1088
     8.7453   8.7453   8.7453  10.7299  10.7299  10.7299  10.7580  10.7580

     highest occupied level (ev):    12.7945

!    total energy              =    -100.04865665 Ry
     estimated scf accuracy    <          2.9E-09 Ry

     The total energy is the sum of the following terms:
     one-electron contribution =      28.80955733 Ry
     hartree contribution      =       9.10134017 Ry
     xc contribution           =     -28.84769972 Ry
     ewald contribution        =    -109.11185443 Ry

     convergence has been achieved in  11 iterations

     Writing all to output data dir /u/home/n/nbriana/qe-7.3.1/XSpectra/test/results/tmp/diamond.save/ :
     XML data file, charge density, pseudopotentials, collected wavefunctions
 
     init_run     :      0.65s CPU      0.67s WALL (       1 calls)
     electrons    :      4.29s CPU      4.42s WALL (       1 calls)

     Called by init_run:
     wfcinit      :      0.51s CPU      0.52s WALL (       1 calls)
     potinit      :      0.03s CPU      0.04s WALL (       1 calls)
     hinit0       :      0.10s CPU      0.10s WALL (       1 calls)

     Called by electrons:
     c_bands      :      3.64s CPU      3.67s WALL (      11 calls)
     sum_band     :      0.53s CPU      0.54s WALL (      11 calls)
     v_of_rho     :      0.11s CPU      0.11s WALL (      12 calls)
     mix_rho      :      0.02s CPU      0.02s WALL (      11 calls)

     Called by c_bands:
     init_us_2    :      0.04s CPU      0.04s WALL (     230 calls)
     cegterg      :      3.60s CPU      3.63s WALL (     110 calls)

     Called by *egterg:
     cdiaghg      :      0.13s CPU      0.14s WALL (     430 calls)
     h_psi        :      3.40s CPU      3.43s WALL (     440 calls)
     g_psi        :      0.01s CPU      0.01s WALL (     320 calls)

     Called by h_psi:
     h_psi:calbec :      0.05s CPU      0.05s WALL (     440 calls)
     vloc_psi     :      3.30s CPU      3.32s WALL (     440 calls)
     add_vuspsi   :      0.04s CPU      0.04s WALL (     440 calls)

     General routines
     calbec       :      0.05s CPU      0.05s WALL (     440 calls)
     fft          :      0.03s CPU      0.03s WALL (     119 calls)
     ffts         :      0.00s CPU      0.00s WALL (      11 calls)
     fftw         :      3.50s CPU      3.53s WALL (   13120 calls)
 
     Parallel routines
 
     PWSCF        :      5.04s CPU      5.79s WALL

 
   This run was terminated on:  21:30:53  27Mar2025            

=------------------------------------------------------------------------------=
   JOB DONE.
=------------------------------------------------------------------------------=
